LAMMPS (3 Mar 2020)


ERROR: Unknown command:  (src/input.cpp:232)
Last command: 
