LAMMPS (3 Mar 2020)
# 2d LJ crack simulation

units lj

dimension	2
boundary	s s p

atom_style	atomic
neighbor	0.3 bin
neigh_modify	delay 5

# create geometry

lattice		hex 0.93
Lattice spacing in x,y,z = 1.11428 1.92998 1.11428
region		box block 0 100 0 40 -0.25 0.25
create_box	5 box
Created orthogonal box = (0 0 -0.278569) to (111.428 77.1994 0.278569)
  1 by 1 by 1 MPI processor grid
create_atoms	1 box
Created 8141 atoms
  create_atoms CPU = 0.00111359 secs

mass		1 1.0
mass		2 1.0
mass		3 1.0
mass		4 1.0
mass		5 1.0

# LJ potentials

pair_style	lj/cut 2.5
pair_coeff	* * 1.0 1.0 2.5

# define groups

region	        1 block INF INF INF 1.25 INF INF
group		lower region 1
302 atoms in group lower
region		2 block INF INF 38.75 INF INF INF
group		upper region 2
302 atoms in group upper
group		boundary union lower upper
604 atoms in group boundary
group		mobile subtract all boundary
7537 atoms in group mobile

region		leftupper block INF 20 20 INF INF INF
region		leftlower block INF 20 INF 20 INF INF
group		leftupper region leftupper
841 atoms in group leftupper
group		leftlower region leftlower
841 atoms in group leftlower

set		group leftupper type 2
  841 settings made for type
set		group leftlower type 3
  841 settings made for type
set		group lower type 4
  302 settings made for type
set		group upper type 5
  302 settings made for type

# initial velocities

compute	  	new mobile temp
velocity	mobile create 0.01 887723 temp new
velocity	upper set 0.0 0.3 0.0
velocity	mobile ramp vy 0.0 0.3 y 1.25 38.75 sum yes

# fixes

fix		1 all nve
fix		2 boundary setforce 0.0 0.0 0.0

# run

timestep	0.003
thermo		200
thermo_modify	temp new
WARNING: Temperature for thermo pressure is not for group all (src/thermo.cpp:485)

neigh_modify	exclude type 2 3

dump		1 all atom 500 dump.crack

#dump		2 all image 250 image.*.jpg type type #		zoom 1.6 adiam 1.5
#dump_modify	2 pad 4

#dump		3 all movie 250 movie.mpg type type #		zoom 1.6 adiam 1.5
#dump_modify	3 pad 4

run		5000
Neighbor list info ...
  update every 1 steps, delay 5 steps, check yes
  max neighbors/atom: 2000, page size: 100000
  master list distance cutoff = 2.8
  ghost atom cutoff = 2.8
  binsize = 1.4, bins = 80 56 1
  1 neighbor lists, perpetual/occasional/extra = 1 0 0
  (1) pair lj/cut, perpetual
      attributes: half, newton on
      pair build: half/bin/atomonly/newton
      stencil: half/bin/2d/newton
      bin: standard
Per MPI rank memory allocation (min/avg/max) = 4.423 | 4.423 | 4.423 Mbytes
Step Temp E_pair E_mol TotEng Press Volume 
       0  0.065651733   -3.2595015            0   -3.1987287 -0.036239172    8605.5917 
     200  0.060101647   -3.2531884            0   -3.1975532   -0.2307635     8638.626 
     400  0.060589818   -3.2510029            0   -3.1949159  -0.43110909    8676.6963 
     600  0.060905516   -3.2466871            0   -3.1903077  -0.60504283    8716.4653 
     800  0.061744383   -3.2413047            0   -3.1841488  -0.75292575    8756.5231 
    1000  0.062448388   -3.2348684            0   -3.1770609  -0.88068346    8794.9199 
    1200  0.063734187   -3.2274996            0   -3.1685019  -0.99080202     8835.186 
    1400  0.065381102   -3.2194856            0   -3.1589633   -1.0858256    8873.9035 
    1600  0.067442008   -3.2107105            0   -3.1482804   -1.1670425    8911.8465 
    1800  0.069013709   -3.2013487            0   -3.1374637   -1.2290322    8948.8217 
    2000  0.070474119   -3.1913367            0   -3.1260999   -1.2780251    8983.4738 
    2200  0.072097804   -3.1807464            0   -3.1140065   -1.3147692    9027.2244 
    2400  0.073611014   -3.1696637            0   -3.1015231   -1.3376926    9065.5547 
    2600  0.074938295   -3.1580806            0   -3.0887114   -1.3481838    9106.4016 
    2800  0.076196156   -3.1462962            0   -3.0757625   -1.3498041    9147.0549 
    3000  0.077696346   -3.1344334            0   -3.0625111   -1.3477222    9185.9659 
    3200  0.079869519   -3.1230558            0   -3.0491218   -1.3479059    9219.4564 
    3400  0.081854409    -3.111544            0   -3.0357726   -1.3503877    9259.3354 
    3600  0.083870686   -3.1000273            0   -3.0223895   -1.3475776    9299.0207 
    3800  0.085650019   -3.0882489            0    -3.008964   -1.3435836    9335.8023 
    4000  0.085576441   -3.0767411            0   -2.9975243   -1.3374789    9378.7786 
    4200  0.083163776   -3.0652828            0   -2.9882993   -1.3351111    9416.7217 
    4400  0.084241473   -3.0557757            0   -2.9777947   -1.3278036    9456.7942 
    4600  0.085002961   -3.0455221            0   -2.9668361   -1.3079594    9492.2206 
    4800  0.088421821   -3.0380982            0   -2.9562474    -1.281606    9530.7445 
    5000  0.090609446   -3.0315346            0   -2.9476588   -1.2166126    9568.6875 
Loop time of 3.19571 on 1 procs for 5000 steps with 8141 atoms

Performance: 405543.493 tau/day, 1564.597 timesteps/s
99.8% CPU use with 1 MPI tasks x no OpenMP threads

MPI task timing breakdown:
Section |  min time  |  avg time  |  max time  |%varavg| %total
---------------------------------------------------------------
Pair    | 2.6359     | 2.6359     | 2.6359     |   0.0 | 82.48
Neigh   | 0.1462     | 0.1462     | 0.1462     |   0.0 |  4.57
Comm    | 0.0028396  | 0.0028396  | 0.0028396  |   0.0 |  0.09
Output  | 0.071226   | 0.071226   | 0.071226   |   0.0 |  2.23
Modify  | 0.26632    | 0.26632    | 0.26632    |   0.0 |  8.33
Other   |            | 0.07326    |            |       |  2.29

Nlocal:    8141 ave 8141 max 8141 min
Histogram: 1 0 0 0 0 0 0 0 0 0
Nghost:    0 ave 0 max 0 min
Histogram: 1 0 0 0 0 0 0 0 0 0
Neighs:    71019 ave 71019 max 71019 min
Histogram: 1 0 0 0 0 0 0 0 0 0

Total # of neighbors = 71019
Ave neighs/atom = 8.72362
Neighbor list builds = 102
Dangerous builds = 0
Total wall time: 0:00:03
