ITEM: TIMESTEP
0
ITEM: NUMBER OF ATOMS
350
ITEM: BOX BOUNDS pp pp ff
0.0000000000000000e+00 7.9370052598409968e+00
0.0000000000000000e+00 7.9370052598409968e+00
0.0000000000000000e+00 1.5874010519681994e+01
ITEM: ATOMS id type xs ys zs
1 1 0 0 0
2 1 0.1 0.1 0
3 1 0.1 0 0.05
4 1 0 0.1 0.05
5 1 0.2 0 0
6 1 0.3 0.1 0
7 1 0.3 0 0.05
8 1 0.2 0.1 0.05
9 1 0.4 0 0
12 1 0.4 0.1 0.05
21 1 0 0.2 0
22 1 0.1 0.3 0
23 1 0.1 0.2 0.05
24 1 0 0.3 0.05
25 1 0.2 0.2 0
26 1 0.3 0.3 0
27 1 0.3 0.2 0.05
28 1 0.2 0.3 0.05
29 1 0.4 0.2 0
32 1 0.4 0.3 0.05
41 1 0 0.4 0
43 1 0.1 0.4 0.05
45 1 0.2 0.4 0
47 1 0.3 0.4 0.05
49 1 0.4 0.4 0
101 1 0 0 0.1
102 1 0.1 0.1 0.1
103 1 0.1 0 0.15
104 1 0 0.1 0.15
105 1 0.2 0 0.1
106 1 0.3 0.1 0.1
107 1 0.3 0 0.15
108 1 0.2 0.1 0.15
109 1 0.4 0 0.1
112 1 0.4 0.1 0.15
121 1 0 0.2 0.1
122 1 0.1 0.3 0.1
123 1 0.1 0.2 0.15
124 1 0 0.3 0.15
125 1 0.2 0.2 0.1
126 1 0.3 0.3 0.1
127 1 0.3 0.2 0.15
128 1 0.2 0.3 0.15
129 1 0.4 0.2 0.1
132 1 0.4 0.3 0.15
141 1 0 0.4 0.1
143 1 0.1 0.4 0.15
145 1 0.2 0.4 0.1
147 1 0.3 0.4 0.15
149 1 0.4 0.4 0.1
10 1 0.5 0.1 0
11 1 0.5 0 0.05
13 1 0.6 0 0
14 1 0.7 0.1 0
15 1 0.7 0 0.05
16 1 0.6 0.1 0.05
17 1 0.8 0 0
18 1 0.9 0.1 0
19 1 0.9 0 0.05
20 1 0.8 0.1 0.05
30 1 0.5 0.3 0
31 1 0.5 0.2 0.05
33 1 0.6 0.2 0
34 1 0.7 0.3 0
35 1 0.7 0.2 0.05
36 1 0.6 0.3 0.05
37 1 0.8 0.2 0
38 1 0.9 0.3 0
39 1 0.9 0.2 0.05
40 1 0.8 0.3 0.05
51 1 0.5 0.4 0.05
53 1 0.6 0.4 0
55 1 0.7 0.4 0.05
57 1 0.8 0.4 0
59 1 0.9 0.4 0.05
110 1 0.5 0.1 0.1
111 1 0.5 0 0.15
113 1 0.6 0 0.1
114 1 0.7 0.1 0.1
115 1 0.7 0 0.15
116 1 0.6 0.1 0.15
117 1 0.8 0 0.1
118 1 0.9 0.1 0.1
119 1 0.9 0 0.15
120 1 0.8 0.1 0.15
130 1 0.5 0.3 0.1
131 1 0.5 0.2 0.15
133 1 0.6 0.2 0.1
134 1 0.7 0.3 0.1
135 1 0.7 0.2 0.15
136 1 0.6 0.3 0.15
137 1 0.8 0.2 0.1
138 1 0.9 0.3 0.1
139 1 0.9 0.2 0.15
140 1 0.8 0.3 0.15
151 1 0.5 0.4 0.15
153 1 0.6 0.4 0.1
155 1 0.7 0.4 0.15
157 1 0.8 0.4 0.1
159 1 0.9 0.4 0.15
42 1 0.1 0.5 0
44 1 0 0.5 0.05
46 1 0.3 0.5 0
48 1 0.2 0.5 0.05
52 1 0.4 0.5 0.05
61 1 0 0.6 0
62 1 0.1 0.7 0
63 1 0.1 0.6 0.05
64 1 0 0.7 0.05
65 1 0.2 0.6 0
66 1 0.3 0.7 0
67 1 0.3 0.6 0.05
68 1 0.2 0.7 0.05
69 1 0.4 0.6 0
72 1 0.4 0.7 0.05
81 1 0 0.8 0
82 1 0.1 0.9 0
83 1 0.1 0.8 0.05
84 1 0 0.9 0.05
85 1 0.2 0.8 0
86 1 0.3 0.9 0
87 1 0.3 0.8 0.05
88 1 0.2 0.9 0.05
89 1 0.4 0.8 0
92 1 0.4 0.9 0.05
142 1 0.1 0.5 0.1
144 1 0 0.5 0.15
146 1 0.3 0.5 0.1
148 1 0.2 0.5 0.15
152 1 0.4 0.5 0.15
161 1 0 0.6 0.1
162 1 0.1 0.7 0.1
163 1 0.1 0.6 0.15
164 1 0 0.7 0.15
165 1 0.2 0.6 0.1
166 1 0.3 0.7 0.1
167 1 0.3 0.6 0.15
168 1 0.2 0.7 0.15
169 1 0.4 0.6 0.1
172 1 0.4 0.7 0.15
181 1 0 0.8 0.1
182 1 0.1 0.9 0.1
183 1 0.1 0.8 0.15
184 1 0 0.9 0.15
185 1 0.2 0.8 0.1
186 1 0.3 0.9 0.1
187 1 0.3 0.8 0.15
188 1 0.2 0.9 0.15
189 1 0.4 0.8 0.1
192 1 0.4 0.9 0.15
50 1 0.5 0.5 0
54 1 0.7 0.5 0
56 1 0.6 0.5 0.05
58 1 0.9 0.5 0
60 1 0.8 0.5 0.05
70 1 0.5 0.7 0
71 1 0.5 0.6 0.05
73 1 0.6 0.6 0
74 1 0.7 0.7 0
75 1 0.7 0.6 0.05
76 1 0.6 0.7 0.05
77 1 0.8 0.6 0
78 1 0.9 0.7 0
79 1 0.9 0.6 0.05
80 1 0.8 0.7 0.05
90 1 0.5 0.9 0
91 1 0.5 0.8 0.05
93 1 0.6 0.8 0
94 1 0.7 0.9 0
95 1 0.7 0.8 0.05
96 1 0.6 0.9 0.05
97 1 0.8 0.8 0
98 1 0.9 0.9 0
99 1 0.9 0.8 0.05
100 1 0.8 0.9 0.05
150 1 0.5 0.5 0.1
154 1 0.7 0.5 0.1
156 1 0.6 0.5 0.15
158 1 0.9 0.5 0.1
160 1 0.8 0.5 0.15
170 1 0.5 0.7 0.1
171 1 0.5 0.6 0.15
173 1 0.6 0.6 0.1
174 1 0.7 0.7 0.1
175 1 0.7 0.6 0.15
176 1 0.6 0.7 0.15
177 1 0.8 0.6 0.1
178 1 0.9 0.7 0.1
179 1 0.9 0.6 0.15
180 1 0.8 0.7 0.15
190 1 0.5 0.9 0.1
191 1 0.5 0.8 0.15
193 1 0.6 0.8 0.1
194 1 0.7 0.9 0.1
195 1 0.7 0.8 0.15
196 1 0.6 0.9 0.15
197 1 0.8 0.8 0.1
198 1 0.9 0.9 0.1
199 1 0.9 0.8 0.15
200 1 0.8 0.9 0.15
201 1 0 0 0.2
202 1 0.1 0.1 0.2
203 1 0.1 0 0.25
204 1 0 0.1 0.25
205 1 0.2 0 0.2
206 1 0.3 0.1 0.2
207 1 0.3 0 0.25
208 1 0.2 0.1 0.25
209 1 0.4 0 0.2
212 1 0.4 0.1 0.25
221 1 0 0.2 0.2
222 1 0.1 0.3 0.2
223 1 0.1 0.2 0.25
224 1 0 0.3 0.25
225 1 0.2 0.2 0.2
226 1 0.3 0.3 0.2
227 1 0.3 0.2 0.25
228 1 0.2 0.3 0.25
229 1 0.4 0.2 0.2
232 1 0.4 0.3 0.25
241 1 0 0.4 0.2
243 1 0.1 0.4 0.25
245 1 0.2 0.4 0.2
247 1 0.3 0.4 0.25
249 1 0.4 0.4 0.2
301 1 0 0 0.3
302 1 0.1 0.1 0.3
303 1 0.2 0 0.3
304 1 0.3 0.1 0.3
305 1 0.4 0 0.3
311 1 0 0.2 0.3
312 1 0.1 0.3 0.3
313 1 0.2 0.2 0.3
314 1 0.3 0.3 0.3
315 1 0.4 0.2 0.3
321 1 0 0.4 0.3
323 1 0.2 0.4 0.3
325 1 0.4 0.4 0.3
210 1 0.5 0.1 0.2
211 1 0.5 0 0.25
213 1 0.6 0 0.2
214 1 0.7 0.1 0.2
215 1 0.7 0 0.25
216 1 0.6 0.1 0.25
217 1 0.8 0 0.2
218 1 0.9 0.1 0.2
219 1 0.9 0 0.25
220 1 0.8 0.1 0.25
230 1 0.5 0.3 0.2
231 1 0.5 0.2 0.25
233 1 0.6 0.2 0.2
234 1 0.7 0.3 0.2
235 1 0.7 0.2 0.25
236 1 0.6 0.3 0.25
237 1 0.8 0.2 0.2
238 1 0.9 0.3 0.2
239 1 0.9 0.2 0.25
240 1 0.8 0.3 0.25
251 1 0.5 0.4 0.25
253 1 0.6 0.4 0.2
255 1 0.7 0.4 0.25
257 1 0.8 0.4 0.2
259 1 0.9 0.4 0.25
306 1 0.5 0.1 0.3
307 1 0.6 0 0.3
308 1 0.7 0.1 0.3
309 1 0.8 0 0.3
310 1 0.9 0.1 0.3
316 1 0.5 0.3 0.3
317 1 0.6 0.2 0.3
318 1 0.7 0.3 0.3
319 1 0.8 0.2 0.3
320 1 0.9 0.3 0.3
327 1 0.6 0.4 0.3
329 1 0.8 0.4 0.3
242 1 0.1 0.5 0.2
244 1 0 0.5 0.25
246 1 0.3 0.5 0.2
248 1 0.2 0.5 0.25
252 1 0.4 0.5 0.25
261 1 0 0.6 0.2
262 1 0.1 0.7 0.2
263 1 0.1 0.6 0.25
264 1 0 0.7 0.25
265 1 0.2 0.6 0.2
266 1 0.3 0.7 0.2
267 1 0.3 0.6 0.25
268 1 0.2 0.7 0.25
269 1 0.4 0.6 0.2
272 1 0.4 0.7 0.25
281 1 0 0.8 0.2
282 1 0.1 0.9 0.2
283 1 0.1 0.8 0.25
284 1 0 0.9 0.25
285 1 0.2 0.8 0.2
286 1 0.3 0.9 0.2
287 1 0.3 0.8 0.25
288 1 0.2 0.9 0.25
289 1 0.4 0.8 0.2
292 1 0.4 0.9 0.25
322 1 0.1 0.5 0.3
324 1 0.3 0.5 0.3
331 1 0 0.6 0.3
332 1 0.1 0.7 0.3
333 1 0.2 0.6 0.3
334 1 0.3 0.7 0.3
335 1 0.4 0.6 0.3
341 1 0 0.8 0.3
342 1 0.1 0.9 0.3
343 1 0.2 0.8 0.3
344 1 0.3 0.9 0.3
345 1 0.4 0.8 0.3
250 1 0.5 0.5 0.2
254 1 0.7 0.5 0.2
256 1 0.6 0.5 0.25
258 1 0.9 0.5 0.2
260 1 0.8 0.5 0.25
270 1 0.5 0.7 0.2
271 1 0.5 0.6 0.25
273 1 0.6 0.6 0.2
274 1 0.7 0.7 0.2
275 1 0.7 0.6 0.25
276 1 0.6 0.7 0.25
277 1 0.8 0.6 0.2
278 1 0.9 0.7 0.2
279 1 0.9 0.6 0.25
280 1 0.8 0.7 0.25
290 1 0.5 0.9 0.2
291 1 0.5 0.8 0.25
293 1 0.6 0.8 0.2
294 1 0.7 0.9 0.2
295 1 0.7 0.8 0.25
296 1 0.6 0.9 0.25
297 1 0.8 0.8 0.2
298 1 0.9 0.9 0.2
299 1 0.9 0.8 0.25
300 1 0.8 0.9 0.25
326 1 0.5 0.5 0.3
328 1 0.7 0.5 0.3
330 1 0.9 0.5 0.3
336 1 0.5 0.7 0.3
337 1 0.6 0.6 0.3
338 1 0.7 0.7 0.3
339 1 0.8 0.6 0.3
340 1 0.9 0.7 0.3
346 1 0.5 0.9 0.3
347 1 0.6 0.8 0.3
348 1 0.7 0.9 0.3
349 1 0.8 0.8 0.3
350 1 0.9 0.9 0.3
ITEM: TIMESTEP
50
ITEM: NUMBER OF ATOMS
351
ITEM: BOX BOUNDS pp pp ff
0.0000000000000000e+00 7.9370052598409968e+00
0.0000000000000000e+00 7.9370052598409968e+00
0.0000000000000000e+00 1.5874010519681994e+01
ITEM: ATOMS id type xs ys zs
1 1 0 0 0
2 1 0.1 0.1 0
3 1 0.1 0 0.05
4 1 0 0.1 0.05
5 1 0.2 0 0
6 1 0.3 0.1 0
7 1 0.3 0 0.05
8 1 0.2 0.1 0.05
9 1 0.4 0 0
12 1 0.4 0.1 0.05
21 1 0 0.2 0
22 1 0.1 0.3 0
23 1 0.1 0.2 0.05
24 1 0 0.3 0.05
25 1 0.2 0.2 0
26 1 0.3 0.3 0
27 1 0.3 0.2 0.05
28 1 0.2 0.3 0.05
29 1 0.4 0.2 0
32 1 0.4 0.3 0.05
41 1 0 0.4 0
43 1 0.1 0.4 0.05
45 1 0.2 0.4 0
47 1 0.3 0.4 0.05
49 1 0.4 0.4 0
101 1 0 0 0.1
102 1 0.1 0.1 0.1
103 1 0.1 0 0.15
104 1 0 0.1 0.15
105 1 0.2 0 0.1
106 1 0.3 0.1 0.1
107 1 0.3 0 0.15
108 1 0.2 0.1 0.15
109 1 0.4 0 0.1
112 1 0.4 0.1 0.15
121 1 0 0.2 0.1
122 1 0.1 0.3 0.1
123 1 0.1 0.2 0.15
124 1 0 0.3 0.15
125 1 0.2 0.2 0.1
126 1 0.3 0.3 0.1
127 1 0.3 0.2 0.15
128 1 0.2 0.3 0.15
129 1 0.4 0.2 0.1
132 1 0.4 0.3 0.15
141 1 0 0.4 0.1
143 1 0.1 0.4 0.15
145 1 0.2 0.4 0.1
147 1 0.3 0.4 0.15
149 1 0.4 0.4 0.1
10 1 0.5 0.1 0
11 1 0.5 0 0.05
13 1 0.6 0 0
14 1 0.7 0.1 0
15 1 0.7 0 0.05
16 1 0.6 0.1 0.05
17 1 0.8 0 0
18 1 0.9 0.1 0
19 1 0.9 0 0.05
20 1 0.8 0.1 0.05
30 1 0.5 0.3 0
31 1 0.5 0.2 0.05
33 1 0.6 0.2 0
34 1 0.7 0.3 0
35 1 0.7 0.2 0.05
36 1 0.6 0.3 0.05
37 1 0.8 0.2 0
38 1 0.9 0.3 0
39 1 0.9 0.2 0.05
40 1 0.8 0.3 0.05
51 1 0.5 0.4 0.05
53 1 0.6 0.4 0
55 1 0.7 0.4 0.05
57 1 0.8 0.4 0
59 1 0.9 0.4 0.05
110 1 0.5 0.1 0.1
111 1 0.5 0 0.15
113 1 0.6 0 0.1
114 1 0.7 0.1 0.1
115 1 0.7 0 0.15
116 1 0.6 0.1 0.15
117 1 0.8 0 0.1
118 1 0.9 0.1 0.1
119 1 0.9 0 0.15
120 1 0.8 0.1 0.15
130 1 0.5 0.3 0.1
131 1 0.5 0.2 0.15
133 1 0.6 0.2 0.1
134 1 0.7 0.3 0.1
135 1 0.7 0.2 0.15
136 1 0.6 0.3 0.15
137 1 0.8 0.2 0.1
138 1 0.9 0.3 0.1
139 1 0.9 0.2 0.15
140 1 0.8 0.3 0.15
151 1 0.5 0.4 0.15
153 1 0.6 0.4 0.1
155 1 0.7 0.4 0.15
157 1 0.8 0.4 0.1
159 1 0.9 0.4 0.15
42 1 0.1 0.5 0
44 1 0 0.5 0.05
46 1 0.3 0.5 0
48 1 0.2 0.5 0.05
52 1 0.4 0.5 0.05
61 1 0 0.6 0
62 1 0.1 0.7 0
63 1 0.1 0.6 0.05
64 1 0 0.7 0.05
65 1 0.2 0.6 0
66 1 0.3 0.7 0
67 1 0.3 0.6 0.05
68 1 0.2 0.7 0.05
69 1 0.4 0.6 0
72 1 0.4 0.7 0.05
81 1 0 0.8 0
82 1 0.1 0.9 0
83 1 0.1 0.8 0.05
84 1 0 0.9 0.05
85 1 0.2 0.8 0
86 1 0.3 0.9 0
87 1 0.3 0.8 0.05
88 1 0.2 0.9 0.05
89 1 0.4 0.8 0
92 1 0.4 0.9 0.05
142 1 0.1 0.5 0.1
144 1 0 0.5 0.15
146 1 0.3 0.5 0.1
148 1 0.2 0.5 0.15
152 1 0.4 0.5 0.15
161 1 0 0.6 0.1
162 1 0.1 0.7 0.1
163 1 0.1 0.6 0.15
164 1 0 0.7 0.15
165 1 0.2 0.6 0.1
166 1 0.3 0.7 0.1
167 1 0.3 0.6 0.15
168 1 0.2 0.7 0.15
169 1 0.4 0.6 0.1
172 1 0.4 0.7 0.15
181 1 0 0.8 0.1
182 1 0.1 0.9 0.1
183 1 0.1 0.8 0.15
184 1 0 0.9 0.15
185 1 0.2 0.8 0.1
186 1 0.3 0.9 0.1
187 1 0.3 0.8 0.15
188 1 0.2 0.9 0.15
189 1 0.4 0.8 0.1
192 1 0.4 0.9 0.15
50 1 0.5 0.5 0
54 1 0.7 0.5 0
56 1 0.6 0.5 0.05
58 1 0.9 0.5 0
60 1 0.8 0.5 0.05
70 1 0.5 0.7 0
71 1 0.5 0.6 0.05
73 1 0.6 0.6 0
74 1 0.7 0.7 0
75 1 0.7 0.6 0.05
76 1 0.6 0.7 0.05
77 1 0.8 0.6 0
78 1 0.9 0.7 0
79 1 0.9 0.6 0.05
80 1 0.8 0.7 0.05
90 1 0.5 0.9 0
91 1 0.5 0.8 0.05
93 1 0.6 0.8 0
94 1 0.7 0.9 0
95 1 0.7 0.8 0.05
96 1 0.6 0.9 0.05
97 1 0.8 0.8 0
98 1 0.9 0.9 0
99 1 0.9 0.8 0.05
100 1 0.8 0.9 0.05
150 1 0.5 0.5 0.1
154 1 0.7 0.5 0.1
156 1 0.6 0.5 0.15
158 1 0.9 0.5 0.1
160 1 0.8 0.5 0.15
170 1 0.5 0.7 0.1
171 1 0.5 0.6 0.15
173 1 0.6 0.6 0.1
174 1 0.7 0.7 0.1
175 1 0.7 0.6 0.15
176 1 0.6 0.7 0.15
177 1 0.8 0.6 0.1
178 1 0.9 0.7 0.1
179 1 0.9 0.6 0.15
180 1 0.8 0.7 0.15
190 1 0.5 0.9 0.1
191 1 0.5 0.8 0.15
193 1 0.6 0.8 0.1
194 1 0.7 0.9 0.1
195 1 0.7 0.8 0.15
196 1 0.6 0.9 0.15
197 1 0.8 0.8 0.1
198 1 0.9 0.9 0.1
199 1 0.9 0.8 0.15
200 1 0.8 0.9 0.15
201 1 0.00462107 0.00343826 0.193134
202 1 0.103208 0.0923884 0.201986
203 1 0.103467 0.99817 0.255071
204 1 0.0192979 0.0874374 0.256848
205 1 0.201599 0.00665446 0.201448
206 1 0.305162 0.0926903 0.192737
207 1 0.286793 0.0145618 0.249837
208 1 0.190147 0.10616 0.253518
209 1 0.396501 1.00059 0.200005
212 1 0.40565 0.0987953 0.246652
221 1 0.994757 0.188978 0.197306
222 1 0.10706 0.296768 0.202223
223 1 0.0876969 0.20492 0.244998
224 1 0.00699734 0.301276 0.248679
225 1 0.204682 0.190346 0.193786
226 1 0.294323 0.315331 0.200683
227 1 0.291188 0.209383 0.249091
228 1 0.201344 0.294995 0.244026
229 1 0.388636 0.198353 0.196273
232 1 0.39157 0.298625 0.251589
241 1 0.00611889 0.400848 0.196761
243 1 0.0911403 0.406045 0.247176
245 1 0.186747 0.411801 0.193279
247 1 0.274749 0.412998 0.250586
249 1 0.409694 0.405957 0.194297
301 1 1.00018 0.983368 0.30138
302 1 0.110978 0.106416 0.319624
303 1 0.195949 0.987486 0.306883
304 1 0.322068 0.119379 0.299746
305 1 0.407416 0.00217179 0.313018
311 1 0.00591493 0.204772 0.308605
312 1 0.118878 0.310203 0.293133
313 1 0.196595 0.208861 0.294136
314 1 0.288421 0.30695 0.300442
315 1 0.393532 0.227444 0.306495
321 1 0.0105412 0.39331 0.302292
323 1 0.204228 0.402866 0.305926
325 1 0.40159 0.381396 0.30905
210 1 0.494999 0.100999 0.199102
211 1 0.487576 0.000247742 0.249792
213 1 0.601867 0.00791452 0.195331
214 1 0.702167 0.12133 0.201633
215 1 0.697581 0.010603 0.249952
216 1 0.590486 0.0862102 0.248847
217 1 0.793321 0.0220264 0.200692
218 1 0.904205 0.103784 0.196229
219 1 0.920346 0.00215012 0.247168
220 1 0.799864 0.11038 0.244826
230 1 0.490304 0.296556 0.204203
231 1 0.477632 0.208752 0.25312
233 1 0.588341 0.211027 0.208765
234 1 0.692564 0.292009 0.198835
235 1 0.70082 0.210382 0.250446
236 1 0.598779 0.311848 0.251374
237 1 0.797384 0.216752 0.197046
238 1 0.904245 0.310642 0.196289
239 1 0.915102 0.200434 0.249296
240 1 0.801372 0.316285 0.244782
251 1 0.504947 0.416017 0.249174
253 1 0.597079 0.409249 0.198656
255 1 0.712119 0.400935 0.259577
257 1 0.799099 0.404617 0.193114
259 1 0.933536 0.398145 0.249493
306 1 0.511081 0.111138 0.2947
307 1 0.605023 0.979235 0.294219
308 1 0.683706 0.0992806 0.302348
309 1 0.798416 0.0145988 0.297472
310 1 0.90708 0.0953912 0.296621
316 1 0.507837 0.314077 0.301233
317 1 0.609923 0.227709 0.29969
318 1 0.72689 0.291679 0.307016
319 1 0.795503 0.175554 0.300375
320 1 0.88494 0.295667 0.300488
327 1 0.618363 0.399466 0.306317
329 1 0.804342 0.413691 0.306065
242 1 0.0874424 0.52012 0.197645
244 1 1.00125 0.508099 0.252508
246 1 0.300899 0.500347 0.193568
248 1 0.185607 0.499693 0.246308
252 1 0.408482 0.497709 0.248822
261 1 0.987734 0.596182 0.201635
262 1 0.0975887 0.693151 0.201977
263 1 0.0903023 0.594521 0.251452
264 1 0.995061 0.695186 0.255178
265 1 0.201254 0.59784 0.202058
266 1 0.282926 0.689335 0.206147
267 1 0.310905 0.588226 0.254525
268 1 0.194923 0.696059 0.255108
269 1 0.395021 0.601978 0.203549
272 1 0.394003 0.690404 0.256022
281 1 0.0113453 0.794081 0.193974
282 1 0.101771 0.913243 0.199458
283 1 0.104128 0.799145 0.242171
284 1 0.014132 0.890265 0.245206
285 1 0.206159 0.801846 0.196023
286 1 0.292062 0.901268 0.193633
287 1 0.297758 0.804143 0.249046
288 1 0.197946 0.914045 0.246858
289 1 0.388666 0.783524 0.196811
292 1 0.380727 0.899881 0.247379
322 1 0.103674 0.495904 0.305702
324 1 0.310145 0.498867 0.302752
331 1 0.0167623 0.59162 0.311486
332 1 0.106496 0.710094 0.304112
333 1 0.213049 0.607299 0.298714
334 1 0.297079 0.693613 0.311061
335 1 0.387187 0.611274 0.307222
341 1 0.019803 0.798494 0.289725
342 1 0.0965995 0.89496 0.300604
343 1 0.209556 0.798474 0.29858
344 1 0.300595 0.89762 0.296134
345 1 0.385538 0.803283 0.296315
250 1 0.504876 0.508136 0.197834
254 1 0.697203 0.498573 0.202158
256 1 0.612919 0.504616 0.25233
258 1 0.891477 0.498185 0.19579
260 1 0.798961 0.485779 0.253589
270 1 0.503137 0.673822 0.20296
271 1 0.499911 0.605873 0.257257
273 1 0.602733 0.589844 0.203324
274 1 0.702151 0.691686 0.198271
275 1 0.706002 0.606687 0.248447
276 1 0.605203 0.686041 0.246796
277 1 0.812714 0.605818 0.200105
278 1 0.909284 0.706431 0.199658
279 1 0.896479 0.594852 0.250375
280 1 0.794816 0.698712 0.244053
290 1 0.488513 0.887749 0.199301
291 1 0.509857 0.78343 0.247197
293 1 0.588212 0.789141 0.197704
294 1 0.691038 0.908079 0.201881
295 1 0.701908 0.78572 0.242652
296 1 0.585878 0.896642 0.238955
297 1 0.794262 0.809781 0.199235
298 1 0.917662 0.913865 0.199299
299 1 0.892656 0.800899 0.24781
300 1 0.808457 0.91391 0.249355
326 1 0.484533 0.49995 0.308735
328 1 0.68785 0.506285 0.30144
330 1 0.906483 0.49346 0.300441
336 1 0.501435 0.714912 0.318639
337 1 0.593052 0.607266 0.302786
338 1 0.704499 0.693357 0.290627
339 1 0.792296 0.58276 0.29855
340 1 0.892177 0.69038 0.303744
346 1 0.48547 0.888162 0.296049
347 1 0.605206 0.794964 0.290074
348 1 0.722476 0.917565 0.307845
349 1 0.795624 0.795871 0.301156
350 1 0.912526 0.882718 0.299442
351 2 0.910652 0.3348 0.873721
ITEM: TIMESTEP
100
ITEM: NUMBER OF ATOMS
351
ITEM: BOX BOUNDS pp pp ff
0.0000000000000000e+00 7.9370052598409968e+00
0.0000000000000000e+00 7.9370052598409968e+00
0.0000000000000000e+00 1.5874010519681994e+01
ITEM: ATOMS id type xs ys zs
1 1 0 0 0
2 1 0.1 0.1 0
3 1 0.1 0 0.05
4 1 0 0.1 0.05
5 1 0.2 0 0
6 1 0.3 0.1 0
7 1 0.3 0 0.05
8 1 0.2 0.1 0.05
9 1 0.4 0 0
12 1 0.4 0.1 0.05
21 1 0 0.2 0
22 1 0.1 0.3 0
23 1 0.1 0.2 0.05
24 1 0 0.3 0.05
25 1 0.2 0.2 0
26 1 0.3 0.3 0
27 1 0.3 0.2 0.05
28 1 0.2 0.3 0.05
29 1 0.4 0.2 0
32 1 0.4 0.3 0.05
41 1 0 0.4 0
43 1 0.1 0.4 0.05
45 1 0.2 0.4 0
47 1 0.3 0.4 0.05
49 1 0.4 0.4 0
101 1 0 0 0.1
102 1 0.1 0.1 0.1
103 1 0.1 0 0.15
104 1 0 0.1 0.15
105 1 0.2 0 0.1
106 1 0.3 0.1 0.1
107 1 0.3 0 0.15
108 1 0.2 0.1 0.15
109 1 0.4 0 0.1
112 1 0.4 0.1 0.15
121 1 0 0.2 0.1
122 1 0.1 0.3 0.1
123 1 0.1 0.2 0.15
124 1 0 0.3 0.15
125 1 0.2 0.2 0.1
126 1 0.3 0.3 0.1
127 1 0.3 0.2 0.15
128 1 0.2 0.3 0.15
129 1 0.4 0.2 0.1
132 1 0.4 0.3 0.15
141 1 0 0.4 0.1
143 1 0.1 0.4 0.15
145 1 0.2 0.4 0.1
147 1 0.3 0.4 0.15
149 1 0.4 0.4 0.1
10 1 0.5 0.1 0
11 1 0.5 0 0.05
13 1 0.6 0 0
14 1 0.7 0.1 0
15 1 0.7 0 0.05
16 1 0.6 0.1 0.05
17 1 0.8 0 0
18 1 0.9 0.1 0
19 1 0.9 0 0.05
20 1 0.8 0.1 0.05
30 1 0.5 0.3 0
31 1 0.5 0.2 0.05
33 1 0.6 0.2 0
34 1 0.7 0.3 0
35 1 0.7 0.2 0.05
36 1 0.6 0.3 0.05
37 1 0.8 0.2 0
38 1 0.9 0.3 0
39 1 0.9 0.2 0.05
40 1 0.8 0.3 0.05
51 1 0.5 0.4 0.05
53 1 0.6 0.4 0
55 1 0.7 0.4 0.05
57 1 0.8 0.4 0
59 1 0.9 0.4 0.05
110 1 0.5 0.1 0.1
111 1 0.5 0 0.15
113 1 0.6 0 0.1
114 1 0.7 0.1 0.1
115 1 0.7 0 0.15
116 1 0.6 0.1 0.15
117 1 0.8 0 0.1
118 1 0.9 0.1 0.1
119 1 0.9 0 0.15
120 1 0.8 0.1 0.15
130 1 0.5 0.3 0.1
131 1 0.5 0.2 0.15
133 1 0.6 0.2 0.1
134 1 0.7 0.3 0.1
135 1 0.7 0.2 0.15
136 1 0.6 0.3 0.15
137 1 0.8 0.2 0.1
138 1 0.9 0.3 0.1
139 1 0.9 0.2 0.15
140 1 0.8 0.3 0.15
151 1 0.5 0.4 0.15
153 1 0.6 0.4 0.1
155 1 0.7 0.4 0.15
157 1 0.8 0.4 0.1
159 1 0.9 0.4 0.15
42 1 0.1 0.5 0
44 1 0 0.5 0.05
46 1 0.3 0.5 0
48 1 0.2 0.5 0.05
52 1 0.4 0.5 0.05
61 1 0 0.6 0
62 1 0.1 0.7 0
63 1 0.1 0.6 0.05
64 1 0 0.7 0.05
65 1 0.2 0.6 0
66 1 0.3 0.7 0
67 1 0.3 0.6 0.05
68 1 0.2 0.7 0.05
69 1 0.4 0.6 0
72 1 0.4 0.7 0.05
81 1 0 0.8 0
82 1 0.1 0.9 0
83 1 0.1 0.8 0.05
84 1 0 0.9 0.05
85 1 0.2 0.8 0
86 1 0.3 0.9 0
87 1 0.3 0.8 0.05
88 1 0.2 0.9 0.05
89 1 0.4 0.8 0
92 1 0.4 0.9 0.05
142 1 0.1 0.5 0.1
144 1 0 0.5 0.15
146 1 0.3 0.5 0.1
148 1 0.2 0.5 0.15
152 1 0.4 0.5 0.15
161 1 0 0.6 0.1
162 1 0.1 0.7 0.1
163 1 0.1 0.6 0.15
164 1 0 0.7 0.15
165 1 0.2 0.6 0.1
166 1 0.3 0.7 0.1
167 1 0.3 0.6 0.15
168 1 0.2 0.7 0.15
169 1 0.4 0.6 0.1
172 1 0.4 0.7 0.15
181 1 0 0.8 0.1
182 1 0.1 0.9 0.1
183 1 0.1 0.8 0.15
184 1 0 0.9 0.15
185 1 0.2 0.8 0.1
186 1 0.3 0.9 0.1
187 1 0.3 0.8 0.15
188 1 0.2 0.9 0.15
189 1 0.4 0.8 0.1
192 1 0.4 0.9 0.15
50 1 0.5 0.5 0
54 1 0.7 0.5 0
56 1 0.6 0.5 0.05
58 1 0.9 0.5 0
60 1 0.8 0.5 0.05
70 1 0.5 0.7 0
71 1 0.5 0.6 0.05
73 1 0.6 0.6 0
74 1 0.7 0.7 0
75 1 0.7 0.6 0.05
76 1 0.6 0.7 0.05
77 1 0.8 0.6 0
78 1 0.9 0.7 0
79 1 0.9 0.6 0.05
80 1 0.8 0.7 0.05
90 1 0.5 0.9 0
91 1 0.5 0.8 0.05
93 1 0.6 0.8 0
94 1 0.7 0.9 0
95 1 0.7 0.8 0.05
96 1 0.6 0.9 0.05
97 1 0.8 0.8 0
98 1 0.9 0.9 0
99 1 0.9 0.8 0.05
100 1 0.8 0.9 0.05
150 1 0.5 0.5 0.1
154 1 0.7 0.5 0.1
156 1 0.6 0.5 0.15
158 1 0.9 0.5 0.1
160 1 0.8 0.5 0.15
170 1 0.5 0.7 0.1
171 1 0.5 0.6 0.15
173 1 0.6 0.6 0.1
174 1 0.7 0.7 0.1
175 1 0.7 0.6 0.15
176 1 0.6 0.7 0.15
177 1 0.8 0.6 0.1
178 1 0.9 0.7 0.1
179 1 0.9 0.6 0.15
180 1 0.8 0.7 0.15
190 1 0.5 0.9 0.1
191 1 0.5 0.8 0.15
193 1 0.6 0.8 0.1
194 1 0.7 0.9 0.1
195 1 0.7 0.8 0.15
196 1 0.6 0.9 0.15
197 1 0.8 0.8 0.1
198 1 0.9 0.9 0.1
199 1 0.9 0.8 0.15
200 1 0.8 0.9 0.15
201 1 -0.0043089 0.00682881 0.200297
202 1 0.11036 0.106887 0.196867
203 1 0.0981247 0.0105441 0.247937
204 1 0.0067107 0.123605 0.24898
205 1 0.219441 0.013002 0.201521
206 1 0.312843 0.104675 0.204973
207 1 0.309008 0.0112534 0.256779
208 1 0.200932 0.0962518 0.255085
209 1 0.40339 0.995947 0.197906
212 1 0.42328 0.0855103 0.245133
221 1 0.00849407 0.212612 0.196705
222 1 0.0965892 0.302242 0.204807
223 1 0.112804 0.210962 0.252044
224 1 0.00160251 0.298261 0.248054
225 1 0.202663 0.202942 0.194787
226 1 0.288627 0.292615 0.19793
227 1 0.300825 0.203372 0.246538
228 1 0.20226 0.310497 0.241468
229 1 0.394741 0.207478 0.206794
232 1 0.40338 0.305322 0.247618
241 1 0.0101372 0.400383 0.200312
243 1 0.0843604 0.414058 0.253006
245 1 0.203708 0.40229 0.197743
247 1 0.291844 0.406678 0.24784
249 1 0.394759 0.394534 0.204972
301 1 0.992904 0.999208 0.310521
302 1 0.0972155 0.115341 0.31659
303 1 0.210594 0.00824043 0.324172
304 1 0.33534 0.117191 0.306637
305 1 0.436183 0.015971 0.327013
311 1 0.0206463 0.250385 0.327932
312 1 0.122597 0.307765 0.302891
313 1 0.205317 0.203993 0.30347
314 1 0.291964 0.312609 0.295987
315 1 0.408921 0.23312 0.320607
321 1 0.0057625 0.398428 0.302833
323 1 0.206977 0.416145 0.310161
325 1 0.401555 0.381049 0.305703
210 1 0.49624 0.0979129 0.194033
211 1 0.501114 0.979126 0.25293
213 1 0.597333 -0.00109634 0.198118
214 1 0.698464 0.0968908 0.197749
215 1 0.696686 0.998857 0.247527
216 1 0.595162 0.118862 0.247721
217 1 0.797426 0.986196 0.200407
218 1 0.914637 0.115034 0.198133
219 1 0.916339 0.00988446 0.253779
220 1 0.814449 0.102023 0.249429
230 1 0.500864 0.298452 0.1971
231 1 0.511337 0.218533 0.253584
233 1 0.607386 0.208289 0.19585
234 1 0.718773 0.301628 0.194263
235 1 0.695813 0.204863 0.244292
236 1 0.6008 0.312327 0.250339
237 1 0.792291 0.192514 0.192699
238 1 0.905511 0.300038 0.198559
239 1 0.902533 0.216581 0.246963
240 1 0.804425 0.300519 0.247185
251 1 0.494529 0.396399 0.260855
253 1 0.578581 0.400442 0.202611
255 1 0.703873 0.395383 0.255985
257 1 0.807057 0.399548 0.199145
259 1 0.891124 0.397238 0.259061
306 1 0.496614 0.132398 0.295764
307 1 0.577184 0.01418 0.302984
308 1 0.673164 0.112152 0.303879
309 1 0.787999 0.0284339 0.309053
310 1 0.914971 0.111791 0.302237
316 1 0.519559 0.313505 0.307173
317 1 0.6226 0.233271 0.304813
318 1 0.735957 0.304589 0.306303
319 1 0.785199 0.172308 0.308184
320 1 0.912109 0.272707 0.305845
327 1 0.626951 0.378182 0.310111
329 1 0.801061 0.430569 0.296714
242 1 0.0968728 0.501115 0.200843
244 1 0.0091439 0.52 0.254669
246 1 0.301599 0.500272 0.202477
248 1 0.200904 0.505679 0.256652
252 1 0.391201 0.49172 0.246102
261 1 0.00318149 0.592557 0.193604
262 1 0.108264 0.692002 0.196559
263 1 0.115625 0.603453 0.246424
264 1 0.0186937 0.691249 0.243439
265 1 0.196918 0.590499 0.199035
266 1 0.29988 0.693055 0.191362
267 1 0.296688 0.587292 0.251491
268 1 0.204941 0.693546 0.257003
269 1 0.400851 0.599641 0.194672
272 1 0.409163 0.687751 0.240879
281 1 1.00205 0.79744 0.207948
282 1 0.109344 0.88571 0.202347
283 1 0.106353 0.790911 0.243642
284 1 0.00229406 0.898297 0.244338
285 1 0.20132 0.784698 0.197276
286 1 0.276346 0.890912 0.201657
287 1 0.308038 0.775942 0.253728
288 1 0.198355 0.911486 0.258099
289 1 0.388426 0.800308 0.200938
292 1 0.38547 0.902204 0.239872
322 1 0.0698379 0.522803 0.315001
324 1 0.310582 0.488473 0.308962
331 1 0.991943 0.619519 0.304421
332 1 0.108566 0.71475 0.304177
333 1 0.228546 0.580377 0.306656
334 1 0.274981 0.704509 0.321844
335 1 0.401497 0.613424 0.302324
341 1 0.00300557 0.804896 0.288091
342 1 0.097119 0.919178 0.297637
343 1 0.206341 0.804153 0.296954
344 1 0.317338 0.896953 0.287777
345 1 0.398046 0.784042 0.296357
250 1 0.50204 0.501674 0.20123
254 1 0.708315 0.489182 0.198022
256 1 0.61354 0.492015 0.257921
258 1 0.910277 0.511019 0.193799
260 1 0.814968 0.506949 0.241763
270 1 0.505359 0.683823 0.196776
271 1 0.499317 0.587081 0.248121
273 1 0.616765 0.579385 0.207181
274 1 0.69022 0.709569 0.200565
275 1 0.712619 0.589868 0.248568
276 1 0.598179 0.698715 0.258373
277 1 0.796377 0.606635 0.194349
278 1 0.892978 0.683179 0.196462
279 1 0.906339 0.607906 0.245705
280 1 0.795365 0.696799 0.247004
290 1 0.511052 0.912097 0.195063
291 1 0.504506 0.805168 0.242632
293 1 0.592403 0.798811 0.194221
294 1 0.708495 0.903901 0.195142
295 1 0.712082 0.807012 0.246074
296 1 0.614451 0.897006 0.24356
297 1 0.799766 0.785255 0.197571
298 1 0.895223 0.895649 0.199588
299 1 0.902997 0.800381 0.246874
300 1 0.804126 0.904157 0.257002
326 1 0.506734 0.513512 0.30815
328 1 0.705899 0.518127 0.307022
330 1 0.912509 0.512517 0.304665
336 1 0.485185 0.706305 0.326112
337 1 0.577574 0.622568 0.307437
338 1 0.708011 0.692317 0.296636
339 1 0.81 0.597235 0.30045
340 1 0.892212 0.709213 0.298274
346 1 0.484017 0.888564 0.298844
347 1 0.625935 0.802262 0.302484
348 1 0.699233 0.910133 0.29196
349 1 0.781947 0.79105 0.289192
350 1 0.898102 0.884235 0.297364
351 2 0.910652 0.3348 0.848721
ITEM: TIMESTEP
150
ITEM: NUMBER OF ATOMS
352
ITEM: BOX BOUNDS pp pp ff
0.0000000000000000e+00 7.9370052598409968e+00
0.0000000000000000e+00 7.9370052598409968e+00
0.0000000000000000e+00 1.5874010519681994e+01
ITEM: ATOMS id type xs ys zs
1 1 0 0 0
2 1 0.1 0.1 0
3 1 0.1 0 0.05
4 1 0 0.1 0.05
5 1 0.2 0 0
6 1 0.3 0.1 0
7 1 0.3 0 0.05
8 1 0.2 0.1 0.05
9 1 0.4 0 0
12 1 0.4 0.1 0.05
21 1 0 0.2 0
22 1 0.1 0.3 0
23 1 0.1 0.2 0.05
24 1 0 0.3 0.05
25 1 0.2 0.2 0
26 1 0.3 0.3 0
27 1 0.3 0.2 0.05
28 1 0.2 0.3 0.05
29 1 0.4 0.2 0
32 1 0.4 0.3 0.05
41 1 0 0.4 0
43 1 0.1 0.4 0.05
45 1 0.2 0.4 0
47 1 0.3 0.4 0.05
49 1 0.4 0.4 0
101 1 0 0 0.1
102 1 0.1 0.1 0.1
103 1 0.1 0 0.15
104 1 0 0.1 0.15
105 1 0.2 0 0.1
106 1 0.3 0.1 0.1
107 1 0.3 0 0.15
108 1 0.2 0.1 0.15
109 1 0.4 0 0.1
112 1 0.4 0.1 0.15
121 1 0 0.2 0.1
122 1 0.1 0.3 0.1
123 1 0.1 0.2 0.15
124 1 0 0.3 0.15
125 1 0.2 0.2 0.1
126 1 0.3 0.3 0.1
127 1 0.3 0.2 0.15
128 1 0.2 0.3 0.15
129 1 0.4 0.2 0.1
132 1 0.4 0.3 0.15
141 1 0 0.4 0.1
143 1 0.1 0.4 0.15
145 1 0.2 0.4 0.1
147 1 0.3 0.4 0.15
149 1 0.4 0.4 0.1
10 1 0.5 0.1 0
11 1 0.5 0 0.05
13 1 0.6 0 0
14 1 0.7 0.1 0
15 1 0.7 0 0.05
16 1 0.6 0.1 0.05
17 1 0.8 0 0
18 1 0.9 0.1 0
19 1 0.9 0 0.05
20 1 0.8 0.1 0.05
30 1 0.5 0.3 0
31 1 0.5 0.2 0.05
33 1 0.6 0.2 0
34 1 0.7 0.3 0
35 1 0.7 0.2 0.05
36 1 0.6 0.3 0.05
37 1 0.8 0.2 0
38 1 0.9 0.3 0
39 1 0.9 0.2 0.05
40 1 0.8 0.3 0.05
51 1 0.5 0.4 0.05
53 1 0.6 0.4 0
55 1 0.7 0.4 0.05
57 1 0.8 0.4 0
59 1 0.9 0.4 0.05
110 1 0.5 0.1 0.1
111 1 0.5 0 0.15
113 1 0.6 0 0.1
114 1 0.7 0.1 0.1
115 1 0.7 0 0.15
116 1 0.6 0.1 0.15
117 1 0.8 0 0.1
118 1 0.9 0.1 0.1
119 1 0.9 0 0.15
120 1 0.8 0.1 0.15
130 1 0.5 0.3 0.1
131 1 0.5 0.2 0.15
133 1 0.6 0.2 0.1
134 1 0.7 0.3 0.1
135 1 0.7 0.2 0.15
136 1 0.6 0.3 0.15
137 1 0.8 0.2 0.1
138 1 0.9 0.3 0.1
139 1 0.9 0.2 0.15
140 1 0.8 0.3 0.15
151 1 0.5 0.4 0.15
153 1 0.6 0.4 0.1
155 1 0.7 0.4 0.15
157 1 0.8 0.4 0.1
159 1 0.9 0.4 0.15
42 1 0.1 0.5 0
44 1 0 0.5 0.05
46 1 0.3 0.5 0
48 1 0.2 0.5 0.05
52 1 0.4 0.5 0.05
61 1 0 0.6 0
62 1 0.1 0.7 0
63 1 0.1 0.6 0.05
64 1 0 0.7 0.05
65 1 0.2 0.6 0
66 1 0.3 0.7 0
67 1 0.3 0.6 0.05
68 1 0.2 0.7 0.05
69 1 0.4 0.6 0
72 1 0.4 0.7 0.05
81 1 0 0.8 0
82 1 0.1 0.9 0
83 1 0.1 0.8 0.05
84 1 0 0.9 0.05
85 1 0.2 0.8 0
86 1 0.3 0.9 0
87 1 0.3 0.8 0.05
88 1 0.2 0.9 0.05
89 1 0.4 0.8 0
92 1 0.4 0.9 0.05
142 1 0.1 0.5 0.1
144 1 0 0.5 0.15
146 1 0.3 0.5 0.1
148 1 0.2 0.5 0.15
152 1 0.4 0.5 0.15
161 1 0 0.6 0.1
162 1 0.1 0.7 0.1
163 1 0.1 0.6 0.15
164 1 0 0.7 0.15
165 1 0.2 0.6 0.1
166 1 0.3 0.7 0.1
167 1 0.3 0.6 0.15
168 1 0.2 0.7 0.15
169 1 0.4 0.6 0.1
172 1 0.4 0.7 0.15
181 1 0 0.8 0.1
182 1 0.1 0.9 0.1
183 1 0.1 0.8 0.15
184 1 0 0.9 0.15
185 1 0.2 0.8 0.1
186 1 0.3 0.9 0.1
187 1 0.3 0.8 0.15
188 1 0.2 0.9 0.15
189 1 0.4 0.8 0.1
192 1 0.4 0.9 0.15
50 1 0.5 0.5 0
54 1 0.7 0.5 0
56 1 0.6 0.5 0.05
58 1 0.9 0.5 0
60 1 0.8 0.5 0.05
70 1 0.5 0.7 0
71 1 0.5 0.6 0.05
73 1 0.6 0.6 0
74 1 0.7 0.7 0
75 1 0.7 0.6 0.05
76 1 0.6 0.7 0.05
77 1 0.8 0.6 0
78 1 0.9 0.7 0
79 1 0.9 0.6 0.05
80 1 0.8 0.7 0.05
90 1 0.5 0.9 0
91 1 0.5 0.8 0.05
93 1 0.6 0.8 0
94 1 0.7 0.9 0
95 1 0.7 0.8 0.05
96 1 0.6 0.9 0.05
97 1 0.8 0.8 0
98 1 0.9 0.9 0
99 1 0.9 0.8 0.05
100 1 0.8 0.9 0.05
150 1 0.5 0.5 0.1
154 1 0.7 0.5 0.1
156 1 0.6 0.5 0.15
158 1 0.9 0.5 0.1
160 1 0.8 0.5 0.15
170 1 0.5 0.7 0.1
171 1 0.5 0.6 0.15
173 1 0.6 0.6 0.1
174 1 0.7 0.7 0.1
175 1 0.7 0.6 0.15
176 1 0.6 0.7 0.15
177 1 0.8 0.6 0.1
178 1 0.9 0.7 0.1
179 1 0.9 0.6 0.15
180 1 0.8 0.7 0.15
190 1 0.5 0.9 0.1
191 1 0.5 0.8 0.15
193 1 0.6 0.8 0.1
194 1 0.7 0.9 0.1
195 1 0.7 0.8 0.15
196 1 0.6 0.9 0.15
197 1 0.8 0.8 0.1
198 1 0.9 0.9 0.1
199 1 0.9 0.8 0.15
200 1 0.8 0.9 0.15
201 1 1.00195 0.996072 0.203045
202 1 0.108833 0.103401 0.197143
203 1 0.0980356 0.0235 0.25041
204 1 0.0114716 0.10196 0.242458
205 1 0.213484 0.991651 0.207455
206 1 0.307937 0.0955696 0.201215
207 1 0.323775 0.00999827 0.261072
208 1 0.207084 0.0948127 0.264687
209 1 0.415431 0.993474 0.207224
212 1 0.419853 0.109482 0.260089
221 1 0.00987719 0.21007 0.200589
222 1 0.102192 0.303468 0.197534
223 1 0.127817 0.195633 0.253742
224 1 0.0492336 0.305359 0.263879
225 1 0.193484 0.20025 0.192892
226 1 0.294263 0.298571 0.201228
227 1 0.290134 0.202743 0.238819
228 1 0.191495 0.310681 0.249882
229 1 0.393209 0.200851 0.192478
232 1 0.405466 0.288931 0.261848
241 1 0.0111783 0.407828 0.200855
243 1 0.126484 0.438953 0.256775
245 1 0.209369 0.404392 0.199639
247 1 0.318362 0.389913 0.255871
249 1 0.411872 0.403619 0.20775
301 1 0.99509 0.0154657 0.304065
302 1 0.0909709 0.122428 0.309235
303 1 0.250733 0.00463071 0.319722
304 1 0.338183 0.114279 0.312305
305 1 0.460362 0.00611413 0.326614
311 1 0.0262648 0.22631 0.337351
312 1 0.139125 0.304029 0.310776
313 1 0.218206 0.192489 0.311599
314 1 0.281902 0.303975 0.310776
315 1 0.400733 0.264727 0.325534
321 1 0.0156742 0.385652 0.313728
323 1 0.196121 0.419944 0.317969
325 1 0.409689 0.390158 0.311735
210 1 0.505361 0.100482 0.200192
211 1 0.508029 0.000332097 0.260292
213 1 0.586984 0.0010322 0.199456
214 1 0.710608 0.0821628 0.197489
215 1 0.715695 0.991976 0.249249
216 1 0.603058 0.105042 0.243569
217 1 0.820921 0.998985 0.205506
218 1 0.906093 0.0976525 0.201392
219 1 0.914173 0.0250803 0.252319
220 1 0.792217 0.104497 0.245697
230 1 0.481108 0.29583 0.200925
231 1 0.498614 0.206234 0.250135
233 1 0.621011 0.217451 0.200142
234 1 0.708136 0.315057 0.195877
235 1 0.687984 0.205396 0.257316
236 1 0.58811 0.301534 0.242578
237 1 0.796128 0.18996 0.195493
238 1 0.900858 0.301926 0.194018
239 1 0.902751 0.197524 0.236601
240 1 0.801664 0.278387 0.247008
251 1 0.500343 0.391322 0.25863
253 1 0.585978 0.393898 0.196926
255 1 0.698845 0.403798 0.255954
257 1 0.812185 0.394098 0.202995
259 1 0.899038 0.363145 0.261818
306 1 0.528338 0.111567 0.301686
307 1 0.599378 0.959845 0.317727
308 1 0.681792 0.10445 0.312128
309 1 0.794542 0.035163 0.30499
310 1 0.927333 0.130211 0.289239
316 1 0.519145 0.311564 0.317226
317 1 0.611341 0.23139 0.301411
318 1 0.743503 0.330731 0.319792
319 1 0.792993 0.177079 0.295709
320 1 0.897949 0.266288 0.304178
327 1 0.626405 0.403531 0.311243
329 1 0.808018 0.436543 0.300515
242 1 0.115231 0.513492 0.199181
244 1 0.0110745 0.517622 0.247467
246 1 0.309159 0.503892 0.205505
248 1 0.219281 0.527387 0.255349
252 1 0.421444 0.505553 0.262602
261 1 -0.0063352 0.599898 0.195463
262 1 0.104066 0.689933 0.19974
263 1 0.109645 0.599984 0.244791